    1C
    1UHash: TnxYF9RT, Date: 11/27/2025, Unit system: MM_TON_S_C         
    1UUSER                                                              
    1UDATE              27.november.2025                                
    1UTIME              15:11:56                                        
    1UHOST                                                              
    1UPGM               CalculiX                                        
    1UVERSION           Version 2.22                             
    1UCOMPILETIME       Sun Aug  4 19:44:24     2024                    
    1UDIR                                                               
    1UDBN                                                               
    1UMAT    1STEEL                                                     
    2C                          1433                                     1
 -1         1-9.61959E+00 9.84907E+01-4.50000E+00
 -1         2-1.43700E+01 1.05711E+02-4.50000E+00
 -1         3-1.43493E+01 1.14368E+02-4.50000E+00
 -1         4-9.56424E+00 1.21551E+02-4.50000E+00
 -1         5-1.52300E+00 1.24921E+02-4.50000E+00
 -1         6 7.17802E+00 1.23171E+02-4.50000E+00
 -1         7 1.32666E+01 1.16993E+02-4.50000E+00
 -1         8 1.49285E+01 1.08543E+02-4.50000E+00
 -1         9 1.16643E+01 1.00575E+02-4.50000E+00
 -1        10 7.95437E+00 9.33367E+01-4.50000E+00
 -1        11 9.08370E+00 8.45543E+01-4.50000E+00
 -1        12 1.02526E+01 7.54638E+01-4.50000E+00
 -1        13 1.14216E+01 6.63734E+01-4.50000E+00
 -1        14 1.25905E+01 5.72829E+01-4.50000E+00
 -1        15 1.37595E+01 4.81924E+01-4.50000E+00
 -1        16 1.49738E+01 3.91099E+01-4.50000E+00
 -1        17 2.18597E+01 3.34923E+01-4.50000E+00
 -1        18 2.88969E+01 2.76523E+01-4.50000E+00
 -1        19 3.44184E+01 2.03629E+01-4.50000E+00
 -1        20 3.81453E+01 1.20127E+01-4.50000E+00
 -1        21 3.98843E+01 3.03460E+00-4.50000E+00
 -1        22 3.95240E+01-6.10333E+00-4.50000E+00
 -1        23 3.71029E+01-1.49211E+01-4.50000E+00
 -1        24 3.27474E+01-2.29617E+01-4.50000E+00
 -1        25 2.66756E+01-2.97999E+01-4.50000E+00
 -1        26 1.92070E+01-3.50764E+01-4.50000E+00
 -1        27 1.07377E+01-3.85241E+01-4.50000E+00
 -1        28 1.70663E+00-3.99630E+01-4.50000E+00
 -1        29-7.41420E+00-3.92988E+01-4.50000E+00
 -1        30-1.61468E+01-3.65863E+01-4.50000E+00
 -1        31-2.40384E+01-3.19663E+01-4.50000E+00
 -1        32-3.06700E+01-2.56695E+01-4.50000E+00
 -1        33-3.56956E+01-1.80299E+01-4.50000E+00
 -1        34-3.88603E+01-9.45083E+00-4.50000E+00
 -1        35-3.99967E+01-3.76769E-01-4.50000E+00
 -1        36-3.90301E+01 8.71686E+00-4.50000E+00
 -1        37-3.60293E+01 1.73546E+01-4.50000E+00
 -1        38-3.11499E+01 2.50886E+01-4.50000E+00
 -1        39-2.46350E+01 3.15062E+01-4.50000E+00
 -1        40-1.68760E+01 3.63546E+01-4.50000E+00
 -1        41-1.41949E+01 4.48062E+01-4.50000E+00
 -1        42-1.30259E+01 5.38967E+01-4.50000E+00
 -1        43-1.18570E+01 6.29872E+01-4.50000E+00
 -1        44-1.06881E+01 7.20777E+01-4.50000E+00
 -1        45-9.51913E+00 8.11681E+01-4.50000E+00
 -1        46-8.35019E+00 9.02586E+01-4.50000E+00
 -1        47-8.08685E+00 1.01134E+02-7.50000E+00
 -1        48-4.86430E+00 9.38889E+01-7.50000E+00
 -1        49-5.96150E+00 8.53125E+01-7.50000E+00
 -1        50-7.11302E+00 7.63575E+01-7.50000E+00
 -1        51-8.26455E+00 6.74025E+01-7.50000E+00
 -1        52-9.41607E+00 5.84474E+01-7.50000E+00
 -1        53-1.05676E+01 4.94924E+01-7.50000E+00
 -1        54-1.17191E+01 4.05374E+01-7.50000E+00
 -1        55-1.62574E+01 3.32376E+01-7.50000E+00
 -1        56-2.38011E+01 2.83179E+01-7.50000E+00
 -1        57-2.99395E+01 2.17289E+01-7.50000E+00
 -1        58-3.43053E+01 1.38520E+01-7.50000E+00
 -1        59-3.66308E+01 5.15187E+00-7.50000E+00
 -1        60-3.67945E+01-3.85208E+00-7.50000E+00
 -1        61-3.47721E+01-1.26280E+01-7.50000E+00
 -1        62-3.06885E+01-2.06541E+01-7.50000E+00
 -1        63-2.47932E+01-2.74623E+01-7.50000E+00
 -1        64-1.74202E+01-3.26340E+01-7.50000E+00
 -1        65-9.01892E+00-3.58762E+01-7.50000E+00
 -1        66-8.30619E-02-3.69982E+01-7.50000E+00
 -1        67 8.85746E+00-3.59155E+01-7.50000E+00
 -1        68 1.72742E+01-3.27134E+01-7.50000E+00
 -1        69 2.46677E+01-2.75712E+01-7.50000E+00
 -1        70 3.05952E+01-2.07916E+01-7.50000E+00
 -1        71 3.47173E+01-1.27848E+01-7.50000E+00
 -1        72 3.67747E+01-4.01705E+00-7.50000E+00
 -1        73 3.66541E+01 4.98735E+00-7.50000E+00
 -1        74 3.43701E+01 1.36990E+01-7.50000E+00
 -1        75 3.00356E+01 2.15934E+01-7.50000E+00
 -1        76 2.39288E+01 2.82116E+01-7.50000E+00
 -1        77 1.64050E+01 3.31613E+01-7.50000E+00
 -1        78 1.17403E+01 4.03726E+01-7.50000E+00
 -1        79 1.05888E+01 4.93276E+01-7.50000E+00
 -1        80 9.43726E+00 5.82826E+01-7.50000E+00
 -1        81 8.28574E+00 6.72376E+01-7.50000E+00
 -1        82 7.13422E+00 7.61927E+01-7.50000E+00
 -1        83 5.98269E+00 8.51477E+01-7.50000E+00
 -1        84 4.86280E+00 9.39030E+01-7.50000E+00
 -1        85 7.84038E+00 1.00919E+02-7.50000E+00
 -1        86 1.18088E+01 1.07872E+02-7.50000E+00
 -1        87 1.12899E+01 1.14062E+02-7.50000E+00
 -1        88 6.50990E+00 1.20078E+02-7.50000E+00
 -1        89-7.38489E-01 1.21976E+02-7.50000E+00
 -1        90-6.69066E+00 1.19960E+02-7.50000E+00
 -1        91-1.12510E+01 1.14165E+02-7.50000E+00
 -1        92-1.17184E+01 1.07424E+02-7.50000E+00
 -1        93 9.61959E+00 9.84907E+01 4.50000E+00
 -1        94 1.43717E+01 1.05716E+02 4.50000E+00
 -1        95 1.43574E+01 1.14343E+02 4.50000E+00
 -1        96 9.58785E+00 1.21531E+02 4.50000E+00
 -1        97 1.31052E+00 1.24939E+02 4.50000E+00
 -1        98-7.13734E+00 1.23192E+02 4.50000E+00
 -1        99-1.28583E+01 1.17718E+02 4.50000E+00
 -1       100-1.49937E+01 1.09680E+02 4.50000E+00
 -1       101-1.23376E+01 1.01473E+02 4.50000E+00
 -1       102-7.86116E+00 9.40710E+01 4.50000E+00
 -1       103-9.03104E+00 8.49638E+01 4.50000E+00
 -1       104-1.02021E+01 7.58568E+01 4.50000E+00
 -1       105-1.13732E+01 6.67498E+01 4.50000E+00
 -1       106-1.25442E+01 5.76428E+01 4.50000E+00
 -1       107-1.37153E+01 4.85358E+01 4.50000E+00
 -1       108-1.48992E+01 3.94308E+01 4.50000E+00
 -1       109-2.15952E+01 3.36595E+01 4.50000E+00
 -1       110-2.86929E+01 2.78670E+01 4.50000E+00
 -1       111-3.42770E+01 2.06040E+01 4.50000E+00
 -1       112-3.80642E+01 1.22628E+01 4.50000E+00
 -1       113-3.98604E+01 3.27963E+00 4.50000E+00
 -1       114-3.95612E+01-5.87685E+00 4.50000E+00
 -1       115-3.71817E+01-1.47234E+01 4.50000E+00
 -1       116-3.28575E+01-2.27993E+01 4.50000E+00
 -1       117-2.68112E+01-2.96823E+01 4.50000E+00
 -1       118-1.93501E+01-3.49986E+01 4.50000E+00
 -1       119-1.08781E+01-3.84834E+01 4.50000E+00
 -1       120-1.83590E+00-3.99557E+01 4.50000E+00
 -1       121 7.30352E+00-3.93206E+01 4.50000E+00
 -1       122 1.60586E+01-3.66248E+01 4.50000E+00
 -1       123 2.39741E+01-3.20130E+01 4.50000E+00
 -1       124 3.06304E+01-2.57182E+01 4.50000E+00
 -1       125 3.56749E+01-1.80711E+01 4.50000E+00
 -1       126 3.88530E+01-9.47939E+00 4.50000E+00
 -1       127 3.99969E+01-3.89567E-01 4.50000E+00
 -1       128 3.90293E+01 8.72063E+00 4.50000E+00
 -1       129 3.60205E+01 1.73731E+01 4.50000E+00
 -1       130 3.11271E+01 2.51180E+01 4.50000E+00
 -1       131 2.45921E+01 3.15388E+01 4.50000E+00
 -1       132 1.68195E+01 3.63969E+01 4.50000E+00
 -1       133 1.41838E+01 4.48928E+01 4.50000E+00
 -1       134 1.30127E+01 5.39998E+01 4.50000E+00
 -1       135 1.18416E+01 6.31068E+01 4.50000E+00
 -1       136 1.06706E+01 7.22138E+01 4.50000E+00
 -1       137 9.49950E+00 8.13208E+01 4.50000E+00
 -1       138 8.32843E+00 9.04278E+01 4.50000E+00
 -1       139 8.08685E+00 1.01134E+02 7.50000E+00
 -1       140 4.83988E+00 9.42146E+01 7.50000E+00
 -1       141 5.91748E+00 8.56549E+01 7.50000E+00
 -1       142 7.06984E+00 7.66933E+01 7.50000E+00
 -1       143 8.22219E+00 6.77318E+01 7.50000E+00
 -1       144 9.37455E+00 5.87703E+01 7.50000E+00
 -1       145 1.05269E+01 4.98088E+01 7.50000E+00
 -1       146 1.16793E+01 4.08473E+01 7.50000E+00
 -1       147 1.59856E+01 3.33781E+01 7.50000E+00
 -1       148 2.35709E+01 2.85094E+01 7.50000E+00
 -1       149 2.97700E+01 2.19678E+01 7.50000E+00
 -1       150 3.41937E+01 1.41157E+01 7.50000E+00
 -1       151 3.65917E+01 5.42894E+00 7.50000E+00
 -1       152 3.68256E+01-3.58059E+00 7.50000E+00
 -1       153 3.48601E+01-1.23761E+01 7.50000E+00
 -1       154 3.08346E+01-2.04388E+01 7.50000E+00
 -1       155 2.49797E+01-2.72904E+01 7.50000E+00
 -1       156 1.76373E+01-3.25159E+01 7.50000E+00
 -1       157 9.25274E+00-3.58195E+01 7.50000E+00
 -1       158 3.17091E-01-3.69931E+01 7.50000E+00
 -1       159-8.63633E+00-3.59692E+01 7.50000E+00
 -1       160-1.70801E+01-3.28190E+01 7.50000E+00
 -1       161-2.45057E+01-2.77118E+01 7.50000E+00
 -1       162-3.04785E+01-2.09637E+01 7.50000E+00
 -1       163-3.46501E+01-1.29747E+01 7.50000E+00
 -1       164-3.67515E+01-4.21055E+00 7.50000E+00
 -1       165-3.66804E+01 4.80085E+00 7.50000E+00
 -1       166-3.44345E+01 1.35290E+01 7.50000E+00
 -1       167-3.01370E+01 2.14504E+01 7.50000E+00
 -1       168-2.40585E+01 2.81037E+01 7.50000E+00
 -1       169-1.65491E+01 3.30868E+01 7.50000E+00
 -1       170-1.17602E+01 4.02182E+01 7.50000E+00
 -1       171-1.06078E+01 4.91797E+01 7.50000E+00
 -1       172-9.45545E+00 5.81412E+01 7.50000E+00
 -1       173-8.30309E+00 6.71027E+01 7.50000E+00
 -1       174-7.15074E+00 7.60642E+01 7.50000E+00
 -1       175-5.99838E+00 8.50257E+01 7.50000E+00
 -1       176-4.87426E+00 9.37954E+01 7.50000E+00
 -1       177-8.01860E+00 1.01075E+02 7.50000E+00
 -1       178-1.17825E+01 1.07735E+02 7.50000E+00
 -1       179-1.13357E+01 1.13935E+02 7.50000E+00
 -1       180-6.91276E+00 1.19806E+02 7.50000E+00
 -1       181-9.79334E-01 1.21957E+02 7.50000E+00
 -1       182 6.21732E+00 1.20263E+02 7.50000E+00
 -1       183 1.12050E+01 1.14288E+02 7.50000E+00
 -1       184 1.18467E+01 1.08106E+02 7.50000E+00
 -1       185 3.89057E+00 1.04444E+02 7.50000E+00
 -1       186-1.38336E+00 1.03361E+02 7.50000E+00
 -1       187-5.67613E+00 1.06289E+02 7.50000E+00
 -1       188-6.67403E+00 1.11208E+02 7.50000E+00
 -1       189-3.98711E+00 1.15486E+02 7.50000E+00
 -1       190 7.73834E-01 1.16737E+02 7.50000E+00
 -1       191 5.71884E+00 1.13647E+02 7.50000E+00
 -1       192 6.65217E+00 1.08682E+02 7.50000E+00
 -1       193-5.95284E+00 2.22163E+01 7.50000E+00
 -1       194 3.00210E+00 2.28032E+01 7.50000E+00
 -1       195 1.15000E+01 1.99186E+01 7.50000E+00
 -1       196 1.82471E+01 1.40015E+01 7.50000E+00
 -1       197 2.22163E+01 5.95284E+00 7.50000E+00
 -1       198 2.28032E+01-3.00210E+00 7.50000E+00
 -1       199 1.99186E+01-1.15000E+01 7.50000E+00
 -1       200 1.40015E+01-1.82471E+01 7.50000E+00
 -1       201 5.95284E+00-2.22163E+01 7.50000E+00
 -1       202-3.00210E+00-2.28032E+01 7.50000E+00
 -1       203-1.15000E+01-1.99186E+01 7.50000E+00
 -1       204-1.82471E+01-1.40015E+01 7.50000E+00
 -1       205-2.22163E+01-5.95284E+00 7.50000E+00
 -1       206-2.28032E+01 3.00210E+00 7.50000E+00
 -1       207-1.99186E+01 1.15000E+01 7.50000E+00
 -1       208-1.40015E+01 1.82471E+01 7.50000E+00
 -1       209-2.30000E+01 0.00000E+00-7.50000E+00
 -1       210-2.12492E+01 8.80172E+00-7.50000E+00
 -1       211-1.62635E+01 1.62635E+01-7.50000E+00
 -1       212-8.80172E+00 2.12492E+01-7.50000E+00
 -1       213 1.32200E-13 2.30000E+01-7.50000E+00
 -1       214 8.80172E+00 2.12492E+01-7.50000E+00
 -1       215 1.62635E+01 1.62635E+01-7.50000E+00
 -1       216 2.12492E+01 8.80172E+00-7.50000E+00
 -1       217 2.30000E+01-2.04700E-13-7.50000E+00
 -1       218 2.12492E+01-8.80172E+00-7.50000E+00
 -1       219 1.62635E+01-1.62635E+01-7.50000E+00
 -1       220 8.80172E+00-2.12492E+01-7.50000E+00
 -1       221 2.69800E-13-2.30000E+01-7.50000E+00
 -1       222-8.80172E+00-2.12492E+01-7.50000E+00
 -1       223-1.62635E+01-1.62635E+01-7.50000E+00
 -1       224-2.12492E+01-8.80172E+00-7.50000E+00
 -1       225-3.64450E+00 1.04279E+02-7.50000E+00
 -1       226 1.92934E+00 1.03499E+02-7.50000E+00
 -1       227 5.83511E+00 1.06544E+02-7.50000E+00
 -1       228 6.59508E+00 1.11579E+02-7.50000E+00
 -1       229 3.22249E+00 1.15967E+02-7.50000E+00
 -1       230-1.91744E+00 1.16505E+02-7.50000E+00
 -1       231-5.88011E+00 1.13381E+02-7.50000E+00
 -1       232-6.58142E+00 1.08365E+02-7.50000E+00
 -1       233-5.47939E-02 6.54679E+01 7.50000E+00
 -1       234-4.96757E-02 5.22290E+01 7.50000E+00
 -1       235 4.02568E+00 4.17337E+01 7.50000E+00
 -1       236 7.77160E+00 3.19167E+01 7.50000E+00
 -1       237-7.85184E+00 3.35996E+01 7.50000E+00
 -1       238-4.13223E+00 4.18127E+01 7.50000E+00
 -1       239-3.15547E-01 3.23756E+01 7.50000E+00
 -1       240 1.50391E+00 2.29453E+01-2.71171E-08
 -1       241 2.84877E-02 6.53273E+01-7.50000E+00
 -1       242 3.69874E-01 5.15760E+01-7.50000E+00
 -1       243-3.22283E+00 4.03119E+01-7.50000E+00
 -1       244-7.19142E+00 3.07564E+01-7.50000E+00
 -1       245-1.47786E+01 2.57991E+01-7.50000E+00
 -1       246 2.78474E+00 3.03565E+01-7.50000E+00
 -1       247 5.73287E+00 3.83224E+01-7.50000E+00
 -1       248-3.87352E-01 9.88379E+01-7.50000E+00
 -1       249 1.30753E+01 2.71111E+01-7.50000E+00
 -1       250-1.70819E+00 1.16563E+02 2.50069E+00
 -1       251 3.33619E+00 1.15905E+02 2.53330E+00
 -1       252 6.64615E+00 1.11348E+02 2.52352E+00
 -1       253 1.61631E+00 1.03414E+02 2.50345E+00
 -1       254-3.77746E+00 1.04368E+02 2.48370E+00
 -1       255-6.62474E+00 1.08545E+02 2.48809E+00
 -1       256-5.78380E+00 1.13541E+02 2.49529E+00
 -1       257 5.72475E+00 1.06362E+02 2.52911E+00
 -1       258-1.10840E+00 1.03309E+02-2.55986E+00
 -1       259 4.01921E+00 1.04538E+02-2.47497E+00
 -1       260 5.49117E+00 1.13979E+02-2.46799E+00
 -1       261-5.52749E+00 1.06070E+02-2.51246E+00
 -1       262 6.98183E-01 1.16745E+02-2.49627E+00
 -1       263-4.10486E+00 1.15399E+02-2.49890E+00
 -1       264-6.70594E+00 1.11009E+02-2.51657E+00
 -1       265 6.70474E+00 1.08983E+02-2.41580E+00
 -1       266-1.13783E-02 9.43348E+01 1.10623E-01
 -1       267-6.71973E+00 6.12736E+01 1.00744E+00
 -1       268-2.80418E+01 1.13493E+01-1.52547E-01
 -1       269-5.54362E+00 1.23236E+02-4.50000E+00
 -1       270-4.10683E+00 1.22440E+02-6.00000E+00
 -1       271-8.12745E+00 1.20755E+02-6.00000E+00
 -1       272 1.02223E+01 1.20082E+02-4.50000E+00
 -1       273 9.88823E+00 1.18535E+02-6.00000E+00
 -1       274 6.84396E+00 1.21624E+02-6.00000E+00
 -1       275 1.32964E+01 1.04559E+02-4.50000E+00
 -1       276 1.17365E+01 1.04223E+02-6.00000E+00
 -1       277 1.33687E+01 1.08207E+02-6.00000E+00
 -1       278 9.80932E+00 9.69556E+01-4.50000E+00
 -1       279 7.89738E+00 9.71278E+01-6.00000E+00
 -1       280 9.75232E+00 1.00747E+02-6.00000E+00
 -1       281 2.53783E+01 3.05723E+01-4.50000E+00
 -1       282 2.64129E+01 2.79320E+01-6.00000E+00
 -1       283 2.28942E+01 3.08519E+01-6.00000E+00
 -1       284 3.16577E+01 2.40076E+01-4.50000E+00
 -1       285 3.22270E+01 2.09782E+01-6.00000E+00
 -1       286 2.94663E+01 2.46229E+01-6.00000E+00
 -1       287 3.62818E+01 1.61878E+01-4.50000E+00
 -1       288 3.62577E+01 1.28559E+01-6.00000E+00
 -1       289 3.43943E+01 1.70309E+01-6.00000E+00
 -1       290-2.00926E+01-3.42763E+01-4.50000E+00
 -1       291-2.07293E+01-3.23002E+01-6.00000E+00
 -1       292-1.67835E+01-3.46102E+01-6.00000E+00
 -1       293-2.73542E+01-2.88179E+01-4.50000E+00
 -1       294-2.77316E+01-2.65659E+01-6.00000E+00
 -1       295-2.44158E+01-2.97143E+01-6.00000E+00
 -1       296-3.31828E+01-2.18497E+01-4.50000E+00
 -1       297-3.31920E+01-1.93420E+01-6.00000E+00
 -1       298-3.06792E+01-2.31618E+01-6.00000E+00
 -1       299-3.72779E+01-1.37404E+01-4.50000E+00
 -1       300-3.68162E+01-1.10394E+01-6.00000E+00
 -1       301-3.52338E+01-1.53289E+01-6.00000E+00
 -1       302-3.94285E+01-4.91380E+00-4.50000E+00
 -1       303-3.83956E+01-2.11442E+00-6.00000E+00
 -1       304-3.78274E+01-6.65145E+00-6.00000E+00
 -1       305-3.95134E+01 4.17004E+00-4.50000E+00
 -1       306-3.78305E+01 6.93437E+00-6.00000E+00
 -1       307-3.83138E+01 2.38755E+00-6.00000E+00
 -1       308-3.75297E+01 1.30357E+01-4.50000E+00
 -1       309-3.51673E+01 1.56033E+01-6.00000E+00
 -1       310-3.66677E+01 1.12844E+01-6.00000E+00
 -1       311-1.36104E+01 4.93515E+01-4.50000E+00
 -1       312-1.17968E+01 5.16946E+01-6.00000E+00
 -1       313-1.23812E+01 4.71493E+01-6.00000E+00
 -1       314-1.24415E+01 5.84419E+01-4.50000E+00
 -1       315-1.06365E+01 6.07173E+01-6.00000E+00
 -1       316-1.12210E+01 5.61721E+01-6.00000E+00
 -1       317-1.12725E+01 6.75324E+01-4.50000E+00
 -1       318-9.47631E+00 6.97401E+01-6.00000E+00
 -1       319-1.00608E+01 6.51948E+01-6.00000E+00
 -1       320-1.01036E+01 7.66229E+01-4.50000E+00
 -1       321-8.31608E+00 7.87628E+01-6.00000E+00
 -1       322-8.90055E+00 7.42176E+01-6.00000E+00
 -1       323-8.93466E+00 8.57134E+01-4.50000E+00
 -1       324-7.15584E+00 8.77856E+01-6.00000E+00
 -1       325-7.74031E+00 8.32403E+01-6.00000E+00
 -1       326-6.47558E+00 9.75115E+01-7.50000E+00
 -1       327-7.24195E+00 9.61898E+01-6.00000E+00
 -1       328-8.85322E+00 9.98125E+01-6.00000E+00
 -1       329-5.41290E+00 8.96007E+01-7.50000E+00
 -1       330-6.60725E+00 9.20737E+01-6.00000E+00
 -1       331-6.53726E+00 8.08350E+01-7.50000E+00
 -1       332-7.68879E+00 7.18800E+01-7.50000E+00
 -1       333-8.84031E+00 6.29249E+01-7.50000E+00
 -1       334-9.99183E+00 5.39699E+01-7.50000E+00
 -1       335-1.11434E+01 4.50149E+01-7.50000E+00
 -1       336-1.29570E+01 4.26718E+01-6.00000E+00
 -1       337-2.68703E+01 2.50234E+01-7.50000E+00
 -1       338-3.05447E+01 2.34088E+01-6.00000E+00
 -1       339-2.74755E+01 2.67032E+01-6.00000E+00
 -1       340-3.21224E+01 1.77905E+01-7.50000E+00
 -1       341-3.29844E+01 1.95417E+01-6.00000E+00
 -1       342-3.54681E+01 9.50194E+00-7.50000E+00
 -1       343-3.67127E+01 6.49899E-01-7.50000E+00
 -1       344-3.57833E+01-8.24002E+00-7.50000E+00
 -1       345-3.27303E+01-1.66410E+01-7.50000E+00
 -1       346-2.77409E+01-2.40582E+01-7.50000E+00
 -1       347-2.11067E+01-3.00482E+01-7.50000E+00
 -1       348-1.32196E+01-3.42551E+01-7.50000E+00
 -1       349-1.25828E+01-3.62313E+01-6.00000E+00
 -1       350-4.55099E+00-3.64372E+01-7.50000E+00
 -1       351-3.74863E+00-3.81485E+01-6.00000E+00
 -1       352-8.21656E+00-3.75875E+01-6.00000E+00
 -1       353 3.67144E+01 4.85147E-01-7.50000E+00
 -1       354 3.82692E+01 4.01097E+00-6.00000E+00
 -1       355 3.83295E+01-4.91228E-01-6.00000E+00
 -1       356 3.55121E+01 9.34316E+00-7.50000E+00
 -1       357 3.73997E+01 8.50004E+00-6.00000E+00
 -1       358 3.22029E+01 1.76462E+01-7.50000E+00
 -1       359 2.69822E+01 2.49025E+01-7.50000E+00
 -1       360 2.01669E+01 3.06864E+01-7.50000E+00
 -1       361 1.91323E+01 3.33268E+01-6.00000E+00
 -1       362 6.35159E+00 9.74110E+01-7.50000E+00
 -1       363 6.40859E+00 9.36199E+01-6.00000E+00
 -1       364 9.82460E+00 1.04395E+02-7.50000E+00
 -1       365 1.15494E+01 1.10967E+02-7.50000E+00
 -1       366 1.31092E+01 1.11302E+02-6.00000E+00
 -1       367-8.97083E+00 1.17063E+02-7.50000E+00
 -1       368-1.04076E+01 1.17858E+02-6.00000E+00
 -1       369-8.98489E+00 9.43747E+01-4.50000E+00
 -1       370-1.42976E+01 3.84460E+01-6.00000E+00
 -1       371-1.55354E+01 4.05804E+01-4.50000E+00
 -1       372-1.19948E+01 1.02101E+02-4.50000E+00
 -1       373-1.12284E+01 1.03423E+02-6.00000E+00
 -1       374-1.43597E+01 1.10040E+02-4.50000E+00
 -1       375-1.30338E+01 1.10896E+02-6.00000E+00
 -1       376-1.30442E+01 1.06567E+02-6.00000E+00
 -1       377-1.19568E+01 1.17960E+02-4.50000E+00
 -1       378-1.28002E+01 1.14267E+02-6.00000E+00
 -1       379 2.88571E+00 1.21027E+02-7.50000E+00
 -1       380 3.21977E+00 1.22574E+02-6.00000E+00
 -1       381 2.82751E+00 1.24046E+02-4.50000E+00
 -1       382-1.13075E+00 1.23449E+02-6.00000E+00
 -1       383 1.40975E+01 1.12768E+02-4.50000E+00
 -1       384 1.22783E+01 1.15527E+02-6.00000E+00
 -1       385 6.96853E+00 8.92422E+01-6.00000E+00
 -1       386 5.42275E+00 8.95253E+01-7.50000E+00
 -1       387 8.51904E+00 8.89455E+01-4.50000E+00
 -1       388 7.53320E+00 8.48510E+01-6.00000E+00
 -1       389 9.66817E+00 8.00091E+01-4.50000E+00
 -1       390 8.69343E+00 7.58283E+01-6.00000E+00
 -1       391 8.10896E+00 8.03735E+01-6.00000E+00
 -1       392 1.08371E+01 7.09186E+01-4.50000E+00
 -1       393 9.85366E+00 6.68055E+01-6.00000E+00
 -1       394 9.26919E+00 7.13507E+01-6.00000E+00
 -1       395 1.20060E+01 6.18281E+01-4.50000E+00
 -1       396 1.10139E+01 5.77828E+01-6.00000E+00
 -1       397 1.04294E+01 6.23280E+01-6.00000E+00
 -1       398 1.31750E+01 5.27377E+01-4.50000E+00
 -1       399 1.21741E+01 4.87600E+01-6.00000E+00
 -1       400 1.15897E+01 5.33052E+01-6.00000E+00
 -1       401 1.43666E+01 4.36512E+01-4.50000E+00
 -1       402 1.33571E+01 3.97412E+01-6.00000E+00
 -1       403 1.27499E+01 4.42825E+01-6.00000E+00
 -1       404 1.84167E+01 3.63011E+01-4.50000E+00
 -1       405 1.56894E+01 3.61356E+01-6.00000E+00
 -1       406-1.17805E+01-3.79425E+01-4.50000E+00
 -1       407 3.90148E+01 7.52367E+00-4.50000E+00
 -1       408 3.97041E+01-1.53437E+00-4.50000E+00
 -1       409 3.81493E+01-5.06019E+00-6.00000E+00
 -1       410 3.83134E+01-1.05122E+01-4.50000E+00
 -1       411 3.59101E+01-1.38530E+01-6.00000E+00
 -1       412 3.71206E+01-9.44408E+00-6.00000E+00
 -1       413 3.49251E+01-1.89414E+01-4.50000E+00
 -1       414 3.16713E+01-2.18767E+01-6.00000E+00
 -1       415 3.38490E+01-1.78564E+01-6.00000E+00
 -1       416-1.39883E+01 3.68875E+01-7.50000E+00
 -1       417-1.65667E+01 3.47961E+01-6.00000E+00
 -1       418 2.97115E+01-2.63808E+01-4.50000E+00
 -1       419 2.56717E+01-2.86856E+01-6.00000E+00
 -1       420 2.87076E+01-2.52665E+01-6.00000E+00
 -1       421 2.29413E+01-3.24382E+01-4.50000E+00
 -1       422 2.19374E+01-3.13238E+01-6.00000E+00
 -1       423 1.49724E+01-3.68002E+01-4.50000E+00
 -1       424 1.40060E+01-3.56187E+01-6.00000E+00
 -1       425 1.82406E+01-3.38949E+01-6.00000E+00
 -1       426 6.22218E+00-3.92435E+01-4.50000E+00
 -1       427 5.28204E+00-3.79392E+01-6.00000E+00
 -1       428 9.79759E+00-3.72198E+01-6.00000E+00
 -1       429-2.85379E+00-3.96309E+01-4.50000E+00
 -1       430 8.11783E-01-3.84806E+01-6.00000E+00
 -1       431-2.78925E+01 2.82974E+01-4.50000E+00
 -1       432-2.42180E+01 2.99120E+01-6.00000E+00
 -1       433-3.35896E+01 2.12216E+01-4.50000E+00
 -1       434-2.07555E+01 3.39304E+01-4.50000E+00
 -1       435-2.04462E+01 3.23719E+01-6.00000E+00
 -1       436-1.14847E+01 1.10795E+02-7.50000E+00
 -1       437 8.89992E+00 1.17070E+02-7.50000E+00
 -1       438 1.40727E+01 3.67669E+01-7.50000E+00
 -1       439 1.11645E+01 4.48501E+01-7.50000E+00
 -1       440 1.00130E+01 5.38051E+01-7.50000E+00
 -1       441 6.55845E+00 8.06702E+01-7.50000E+00
 -1       442 8.86150E+00 6.27601E+01-7.50000E+00
 -1       443 7.70998E+00 7.17152E+01-7.50000E+00
 -1       444 4.38720E+00-3.64568E+01-7.50000E+00
 -1       445 3.26562E+01-1.67882E+01-7.50000E+00
 -1       446 2.09710E+01-3.01423E+01-7.50000E+00
 -1       447 1.30658E+01-3.43144E+01-7.50000E+00
 -1       448-9.90261E+00 1.04279E+02-7.50000E+00
 -1       449 2.76315E+01-2.41814E+01-7.50000E+00
 -1       450-2.00292E+01 3.07777E+01-7.50000E+00
 -1       451 3.57460E+01-8.40094E+00-7.50000E+00
 -1       452-3.71458E+00 1.20968E+02-7.50000E+00
 -1       453 1.43646E+01 1.10030E+02 4.50000E+00
 -1       454 1.31021E+01 1.11224E+02 6.00000E+00
 -1       455 1.31092E+01 1.06911E+02 6.00000E+00
 -1       456-2.91341E+00 1.24066E+02 4.50000E+00
 -1       457-4.05833E+00 1.22575E+02 6.00000E+00
 -1       458 1.65592E-01 1.23448E+02 6.00000E+00
 -1       459-1.39260E+01 1.13699E+02 4.50000E+00
 -1       460-1.31647E+01 1.11807E+02 6.00000E+00
 -1       461-1.20970E+01 1.15827E+02 6.00000E+00
 -1       462-1.00994E+01 9.77720E+01 4.50000E+00
 -1       463-7.93988E+00 9.75728E+01 6.00000E+00
 -1       464-1.01781E+01 1.01274E+02 6.00000E+00
 -1       465-2.51441E+01 3.07633E+01 4.50000E+00
 -1       466-2.63757E+01 2.79853E+01 6.00000E+00
 -1       467-2.28269E+01 3.08816E+01 6.00000E+00
 -1       468-3.14850E+01 2.42355E+01 4.50000E+00
 -1       469-3.22070E+01 2.10272E+01 6.00000E+00
 -1       470-2.94150E+01 2.46587E+01 6.00000E+00
 -1       471 2.73381E+00-3.96382E+01 4.50000E+00
 -1       472 3.81030E+00-3.81569E+01 6.00000E+00
 -1       473-7.59403E-01-3.84744E+01 6.00000E+00
 -1       474 1.16811E+01-3.79727E+01 4.50000E+00
 -1       475 1.26557E+01-3.62221E+01 6.00000E+00
 -1       476 8.27813E+00-3.75700E+01 6.00000E+00
 -1       477 2.00164E+01-3.43189E+01 4.50000E+00
 -1       478 2.08057E+01-3.22645E+01 6.00000E+00
 -1       479 1.68480E+01-3.45704E+01 6.00000E+00
 -1       480 2.73022E+01-2.88656E+01 4.50000E+00
 -1       481 2.78050E+01-2.65043E+01 6.00000E+00
 -1       482 2.44769E+01-2.96517E+01 6.00000E+00
 -1       483 3.31526E+01-2.18947E+01 4.50000E+00
 -1       484 3.32547E+01-1.92550E+01 6.00000E+00
 -1       485 3.07325E+01-2.30785E+01 6.00000E+00
 -1       486 3.72639E+01-1.37753E+01 4.50000E+00
 -1       487 3.68565E+01-1.09278E+01 6.00000E+00
 -1       488 3.52675E+01-1.52236E+01 6.00000E+00
 -1       489 3.94249E+01-4.93448E+00 4.50000E+00
 -1       490 3.84112E+01-1.98508E+00 6.00000E+00
 -1       491 3.78393E+01-6.52999E+00 6.00000E+00
 -1       492 3.95131E+01 4.16553E+00 4.50000E+00
 -1       493 3.78105E+01 7.07479E+00 6.00000E+00
 -1       494 3.82943E+01 2.51969E+00 6.00000E+00
 -1       495 1.35982E+01 4.94463E+01 4.50000E+00
 -1       496 1.17698E+01 5.19043E+01 6.00000E+00
 -1       497 1.23553E+01 4.73508E+01 6.00000E+00
 -1       498 1.24272E+01 5.85533E+01 4.50000E+00
 -1       499 1.06081E+01 6.09385E+01 6.00000E+00
 -1       500 1.11936E+01 5.63850E+01 6.00000E+00
 -1       501 1.12561E+01 6.76603E+01 4.50000E+00
 -1       502 9.44638E+00 6.99728E+01 6.00000E+00
 -1       503 1.00319E+01 6.54193E+01 6.00000E+00
 -1       504 1.00850E+01 7.67673E+01 4.50000E+00
 -1       505 8.28467E+00 7.90071E+01 6.00000E+00
 -1       506 8.87020E+00 7.44536E+01 6.00000E+00
 -1       507 8.91397E+00 8.58743E+01 4.50000E+00
 -1       508 7.12296E+00 8.80413E+01 6.00000E+00
 -1       509 7.70849E+00 8.34878E+01 6.00000E+00
 -1       510 6.46337E+00 9.76744E+01 7.50000E+00
 -1       511 7.22973E+00 9.63527E+01 6.00000E+00
 -1       512 8.85322E+00 9.98125E+01 6.00000E+00
 -1       513 5.37868E+00 8.99348E+01 7.50000E+00
 -1       514 6.58416E+00 9.23212E+01 6.00000E+00
 -1       515 6.49366E+00 8.11741E+01 7.50000E+00
 -1       516 7.64601E+00 7.22126E+01 7.50000E+00
 -1       517 8.79837E+00 6.32511E+01 7.50000E+00
 -1       518 9.95073E+00 5.42896E+01 7.50000E+00
 -1       519 1.11031E+01 4.53281E+01 7.50000E+00
 -1       520 1.29315E+01 4.28700E+01 6.00000E+00
 -1       521 3.19819E+01 1.80418E+01 7.50000E+00
 -1       522 3.51071E+01 1.57444E+01 6.00000E+00
 -1       523 3.28953E+01 1.96705E+01 6.00000E+00
 -1       524 3.53927E+01 9.77232E+00 7.50000E+00
 -1       525 3.66115E+01 1.14182E+01 6.00000E+00
 -1       526 3.67086E+01 9.24173E-01 7.50000E+00
 -1       527 3.58428E+01-7.97837E+00 7.50000E+00
 -1       528 3.28473E+01-1.64075E+01 7.50000E+00
 -1       529 2.79071E+01-2.38646E+01 7.50000E+00
 -1       530 2.13085E+01-2.99032E+01 7.50000E+00
 -1       531 1.34450E+01-3.41677E+01 7.50000E+00
 -1       532 4.78492E+00-3.64063E+01 7.50000E+00
 -1       533-4.15962E+00-3.64812E+01 7.50000E+00
 -1       534-5.23612E+00-3.79624E+01 6.00000E+00
 -1       535 9.96680E+00 1.04620E+02 7.50000E+00
 -1       536 1.12293E+01 1.03425E+02 6.00000E+00
 -1       537-3.55575E+01 9.16491E+00 7.50000E+00
 -1       538-3.62493E+01 1.28959E+01 6.00000E+00
 -1       539-3.73723E+01 8.53181E+00 6.00000E+00
 -1       540-3.22858E+01 1.74897E+01 7.50000E+00
 -1       541-3.43558E+01 1.70665E+01 6.00000E+00
 -1       542-2.70978E+01 2.47771E+01 7.50000E+00
 -1       543-2.03038E+01 3.05952E+01 7.50000E+00
 -1       544-1.90722E+01 3.33731E+01 6.00000E+00
 -1       545-6.44643E+00 9.74350E+01 7.50000E+00
 -1       546-6.36771E+00 9.39332E+01 6.00000E+00
 -1       547-9.90057E+00 1.04405E+02 7.50000E+00
 -1       548-1.20601E+01 1.04604E+02 6.00000E+00
 -1       549-1.15591E+01 1.10835E+02 7.50000E+00
 -1       550-1.33881E+01 1.08707E+02 6.00000E+00
 -1       551-9.12424E+00 1.16870E+02 7.50000E+00
 -1       552-9.88555E+00 1.18762E+02 6.00000E+00
 -1       553-3.94605E+00 1.20882E+02 7.50000E+00
 -1       554-7.02505E+00 1.21499E+02 6.00000E+00
 -1       555 2.61899E+00 1.21110E+02 7.50000E+00
 -1       556 3.76392E+00 1.22601E+02 6.00000E+00
 -1       557-9.99784E+00 1.20455E+02 4.50000E+00
 -1       558-1.36657E+01 1.05577E+02 4.50000E+00
 -1       559 8.97401E+00 9.44593E+01 4.50000E+00
 -1       560-1.57242E+01 3.62588E+01 6.00000E+00
 -1       561-1.82472E+01 3.65451E+01 4.50000E+00
 -1       562 1.42494E+01 3.86221E+01 6.00000E+00
 -1       563 1.55016E+01 4.06448E+01 4.50000E+00
 -1       564 1.19956E+01 1.02104E+02 4.50000E+00
 -1       565 1.19726E+01 1.17937E+02 4.50000E+00
 -1       566 1.03964E+01 1.17910E+02 6.00000E+00
 -1       567 1.27812E+01 1.14316E+02 6.00000E+00
 -1       568 5.44918E+00 1.23235E+02 4.50000E+00
 -1       569 7.90259E+00 1.20897E+02 6.00000E+00
 -1       570-8.44610E+00 8.95174E+01 4.50000E+00
 -1       571-7.51471E+00 8.49948E+01 6.00000E+00
 -1       572-6.92977E+00 8.95483E+01 6.00000E+00
 -1       573-9.61657E+00 8.04103E+01 4.50000E+00
 -1       574-8.67642E+00 7.59605E+01 6.00000E+00
 -1       575-8.09089E+00 8.05140E+01 6.00000E+00
 -1       576-1.07876E+01 7.13033E+01 4.50000E+00
 -1       577-9.83813E+00 6.69263E+01 6.00000E+00
 -1       578-9.25260E+00 7.14798E+01 6.00000E+00
 -1       579-1.19587E+01 6.21963E+01 4.50000E+00
 -1       580-1.09998E+01 5.78920E+01 6.00000E+00
 -1       581-1.04143E+01 6.24455E+01 6.00000E+00
 -1       582-1.31298E+01 5.30893E+01 4.50000E+00